<?xml version="1.0"?>
<VTKFile type="UnstructuredGrid"  version="0.1"  >
<UnstructuredGrid>
<Piece  NumberOfPoints="14426" NumberOfCells="42725">
<Points>
<DataArray  type="Float64"  NumberOfComponents="3"  format="ascii">10.5 3 0  9.75 3.43301270189222 0  9.75 2.566987298107781 0  0 0 0  20 0 0  20 6 0  0 6 0  10.4909643485461 3.09462562262255 0  10.4641839662563 3.185831228458972 0  10.42062676631124 3.270320408890179 0  10.36186701883037 3.345039505974059 0  10.29002845433462 3.407287976346307 0  10.20770750606009 3.45481599787859 0  10.11787946712209 3.485905784315244 0  10.02379095729992 3.499433669620655 0  9.928842579690421 3.494910720771824 0  9.836466017352906 3.472500409015252 0  9.672569632911493 3.377874787076733 0  9.606973452895449 3.309079493449623 0  9.555582275724364 3.229113260964232 0  9.520253513201004 3.14086627844882 0  9.502264038667919 3.047528021175183 0  9.502264038749416 2.952471977971322 0  9.520253513209841 2.85913372152108 0  9.555582275585904 2.770886739304343 0  9.606973452745825 2.690920506740641 0  9.672569633152911 2.622125212714078 0  9.836466018695006 2.527499590520243 0  9.928842581001877 2.505089279039618 0  10.0237909593112 2.500566330475154 0  10.11787946927624 2.514094216207347 0  10.20770750867604 2.545184003316076 0  10.29002845620587 2.592712024986205 0  10.36186702036464 2.654960495635037 0  10.42062676697631 2.72967959214469 0  10.46418396658289 2.814168772356819 0  10.49096434864038 2.905374377866611 0  0 5.900000000001199 0  0 5.800000000002399 0  0 5.700000000003599 0  0 5.600000000004347 0  0 5.500000000004148 0  0 5.400000000003867 0  0 5.300000000003586 0  0 5.200000000004046 0  0 5.100000000005245 0  0 5.000000000006329 0  0 4.90000000000628 0  0 4.800000000005999 0  0 4.700000000005718 0  0 4.600000000005437 0  0 4.500000000005157 0  0 4.400000000004876 0  0 4.300000000004594 0  0 4.200000000004314 0  0 4.100000000004033 0  0 4.000000000003867 0  0 3.900000000004269 0  0 3.800000000004728 0  0 3.700000000005188 0  0 3.600000000005648 0  0 3.500000000006107 0  0 3.400000000006567 0  0 3.300000000007027 0  0 3.200000000007486 0  0 3.100000000007946 0  0 3.000000000008319 0  0 2.900000000008125 0  0 2.800000000007844 0  0 2.700000000007563 0  0 2.600000000007284 0  0 2.500000000007003 0  0 2.400000000006723 0  0 2.300000000006443 0  0 2.200000000006163 0  0 2.100000000005882 0  0 2.000000000005603 0  0 1.900000000005323 0  0 1.800000000005042 0  0 1.700000000004762 0  0 1.600000000004482 0  0 1.500000000004202 0  0 1.400000000003922 0  0 1.300000000003642 0  0 1.200000000003362 0  0 1.100000000003082 0  0 1.000000000002801 0  0 0.900000000002521 0  0 0.8000000000022416 0  0 0.7000000000019604 0  0 0.6000000000016801 0  0 0.5000000000014007 0  0 0.4000000000011203 0  0 0.30000000000084 0  0 0.2000000000005606 0  0 0.1000000000002803 0  0.09999999999992465 0 0  0.1999999999998517 0 0  0.2999999999997819 0 0  0.399999999999712 0 0  0.4999999999996379 0 0  0.5999999999995541 0 0  0.6999999999994495 0 0  0.7999999999993355 0 0  0.8999999999992102 0 0  0.9999999999991023 0 0  1.099999999999006 0 0  1.199999999998937 0 0  1.299999999998867 0 0  1.399999999998797 0 0  1.499999999998727 0 0  1.599999999998657 0 0  1.699999999998587 0 0  1.799999999998517 0 0  1.899999999998447 0 0  1.999999999998378 0 0  2.099999999998308 0 0  2.199999999998238 0 0  2.299999999998168 0 0  2.399999999998066 0 0  2.499999999997941 0 0  2.599999999997705 0 0  2.699999999997444 0 0  2.799999999997152 0 0  2.89999999999686 0 0  2.999999999996568 0 0  3.099999999996277 0 0  3.199999999995984 0 0  3.299999999995692 0 0  3.3999999999954 0 0  3.499999999995109 0 0  3.599999999994817 0 0  3.699999999994525 0 0  3.799999999994233 0 0  3.899999999993941 0 0  3.99999999999365 0 0  4.099999999993358 0 0  4.199999999993065 0 0  4.299999999992774 0 0  4.399999999992482 0 0  4.499999999992189 0 0  4.599999999991899 0 0  4.699999999991606 0 0  4.799999999991314 0 0  4.899999999991022 0 0  4.99999999999073 0 0  5.099999999990439 0 0  5.199999999990147 0 0  5.299999999989855 0 0  5.399999999989563 0 0  5.499999999989271 0 0  5.599999999988979 0 0  5.699999999988687 0 0  5.799999999988396 0 0  5.899999999988104 0 0  5.999999999987812 0 0  6.09999999998752 0 0  6.199999999987228 0 0  6.299999999986936 0 0  6.399999999986644 0 0  6.499999999986351 0 0  6.599999999986059 0 0  6.699999999985767 0 0  6.799999999985475 0 0  6.899999999985184 0 0  6.999999999984893 0 0  7.0999999999846 0 0  7.199999999984309 0 0  7.299999999984017 0 0  7.399999999983725 0 0  7.499999999983434 0 0  7.599999999983141 0 0  7.699999999982849 0 0  7.799999999982557 0 0  7.899999999982264 0 0  7.999999999982044 0 0  8.099999999981973 0 0  8.199999999982071 0 0  8.299999999982221 0 0  8.399999999982374 0 0  8.499999999982526 0 0  8.599999999982677 0 0  8.699999999982829 0 0  8.799999999982981 0 0  8.899999999983132 0 0  8.999999999983284 0 0  9.099999999983439 0 0  9.199999999983589 0 0  9.299999999983742 0 0  9.399999999983894 0 0  9.499999999984045 0 0  9.599999999984197 0 0  9.69999999998435 0 0  9.7999999999845 0 0  9.899999999984653 0 0  9.999999999984805 0 0  10.09999999998496 0 0  10.19999999998511 0 0  10.29999999998526 0 0  10.39999999998541 0 0  10.49999999998557 0 0  10.59999999998572 0 0  10.69999999998587 0 0  10.79999999998602 0 0  10.89999999998617 0 0  10.99999999998632 0 0  11.09999999998648 0 0  11.19999999998663 0 0  11.29999999998678 0 0  11.39999999998693 0 0  11.49999999998709 0 0  11.59999999998724 0 0  11.69999999998739 0 0  11.79999999998754 0 0  11.89999999998769 0 0  11.99999999998784 0 0  12.099999999988 0 0  12.19999999998815 0 0  12.2999999999883 0 0  12.39999999998845 0 0  12.4999999999886 0 0  12.59999999998876 0 0  12.69999999998891 0 0  12.79999999998906 0 0  12.89999999998921 0 0  12.99999999998936 0 0  13.09999999998952 0 0  13.19999999998967 0 0  13.29999999998982 0 0  13.39999999998997 0 0  13.49999999999012 0 0  13.59999999999028 0 0  13.69999999999043 0 0  13.79999999999058 0 0  13.89999999999073 0 0  13.99999999999088 0 0  14.09999999999103 0 0  14.19999999999119 0 0  14.29999999999134 0 0  14.39999999999149 0 0  14.49999999999164 0 0  14.59999999999179 0 0  14.69999999999195 0 0  14.7999999999921 0 0  14.89999999999225 0 0  14.9999999999924 0 0  15.09999999999256 0 0  15.19999999999271 0 0  15.29999999999286 0 0  15.39999999999301 0 0  15.49999999999316 0 0  15.59999999999332 0 0  15.69999999999347 0 0  15.79999999999362 0 0  15.89999999999377 0 0  15.99999999999392 0 0  16.09999999999408 0 0  16.19999999999423 0 0  16.29999999999438 0 0  16.39999999999453 0 0  16.49999999999468 0 0  16.59999999999484 0 0  16.69999999999499 0 0  16.79999999999514 0 0  16.89999999999529 0 0  16.99999999999544 0 0  17.0999999999956 0 0  17.19999999999575 0 0  17.2999999999959 0 0  17.39999999999605 0 0  17.4999999999962 0 0  17.59999999999635 0 0  17.69999999999651 0 0  17.79999999999666 0 0  17.89999999999681 0 0  17.99999999999696 0 0  18.09999999999711 0 0  18.19999999999727 0 0  18.29999999999742 0 0  18.39999999999757 0 0  18.49999999999772 0 0  18.59999999999787 0 0  18.69999999999802 0 0  18.79999999999818 0 0  18.89999999999833 0 0  18.99999999999848 0 0  19.09999999999863 0 0  19.19999999999878 0 0  19.29999999999894 0 0  19.39999999999909 0 0  19.49999999999924 0 0  19.59999999999939 0 0  19.69999999999955 0 0  19.7999999999997 0 0  19.89999999999985 0 0  20 0.0999999999995585 0  20 0.1999999999991098 0  20 0.2999999999986612 0  20 0.3999999999982407 0  20 0.4999999999978795 0  20 0.5999999999975234 0  20 0.6999999999971673 0  20 0.7999999999967187 0  20 0.8999999999961775 0  20 0.9999999999956506 0  20 1.099999999995265 0  20 1.199999999994909 0  20 1.299999999994553 0  20 1.399999999994197 0  20 1.49999999999384 0  20 1.599999999993484 0  20 1.699999999993128 0  20 1.799999999992772 0  20 1.899999999992415 0  20 1.999999999992059 0  20 2.099999999991702 0  20 2.199999999991346 0  20 2.29999999999099 0  20 2.399999999990634 0  20 2.499999999990278 0  20 2.599999999989921 0  20 2.699999999989565 0  20 2.799999999989208 0  20 2.899999999988852 0  20 2.999999999988583 0  20 3.09999999998888 0  20 3.199999999989264 0  20 3.299999999989648 0  20 3.399999999990031 0  20 3.499999999990415 0  20 3.599999999990798 0  20 3.699999999991181 0  20 3.799999999991565 0  20 3.899999999991948 0  20 3.999999999992331 0  20 4.099999999992715 0  20 4.199999999993098 0  20 4.299999999993481 0  20 4.399999999993865 0  20 4.499999999994248 0  20 4.599999999994631 0  20 4.699999999995015 0  20 4.799999999995399 0  20 4.899999999995782 0  20 4.999999999996166 0  20 5.099999999996549 0  20 5.199999999996932 0  20 5.299999999997316 0  20 5.399999999997699 0  20 5.499999999998082 0  20 5.599999999998466 0  20 5.699999999998849 0  20 5.799999999999233 0  20 5.899999999999617 0  19.9 6 0  19.8 6 0  19.7 6 0  19.6 6 0  19.5 6 0  19.4 6 0  19.3 6 0  19.2 6 0  19.1 6 0  19 6 0  18.9 6 0  18.8 6 0  18.7 6 0  18.6 6 0  18.5 6 0  18.4 6 0  18.3 6 0  18.2 6 0  18.1 6 0  18 6 0  17.9 6 0  17.8 6 0  17.7 6 0  17.59999999999999 6 0  17.5 6 0  17.4 6 0  17.29999999999999 6 0  17.2 6 0  17.09999999999999 6 0  16.99999999999999 6 0  16.9 6 0  16.79999999999999 6 0  16.7 6 0  16.59999999999999 6 0  16.49999999999999 6 0  16.4 6 0  16.29999999999999 6 0  16.2 6 0  16.09999999999999 6 0  15.99999999999999 6 0  15.9 6 0  15.79999999999999 6 0  15.7 6 0  15.59999999999999 6 0  15.49999999999999 6 0  15.4 6 0  15.3 6 0  15.2 6 0  15.09999999999999 6 0  15 6 0  14.9 6 0  14.79999999999999 6 0  14.7 6 0  14.59999999999999 6 0  14.49999999999999 6 0  14.4 6 0  14.3 6 0  14.2 6 0  14.09999999999999 6 0  13.99999999999999 6 0  13.9 6 0  13.8 6 0  13.7 6 0  13.59999999999999 6 0  13.5 6 0  13.4 6 0  13.3 6 0  13.2 6 0  13.1 6 0  13 6 0  12.9 6 0  12.79999999999999 6 0  12.7 6 0  12.6 6 0  12.5 6 0  12.4 6 0  12.3 6 0  12.2 6 0  12.1 6 0  11.99999999999999 6 0  11.9 6 0  11.8 6 0  11.7 6 0  11.6 6 0  11.5 6 0  11.4 6 0  11.3 6 0  11.2 6 0  11.1 6 0  11 6 0
[...]
<CellData  Scalars="f">
<DataArray  type="Float64"  Name="f"  format="ascii">4 4 18446744073709551615 18446744073709551615 4 4 18446744073709551615 18446744073709551615 4 4 18446744073709551615 18446744073709551615 1 3 18446744073709551615 3 2 18446744073709551615 2 3 18446744073709551615 1 3 18446744073709551615 4 18446744073709551615 18446744073709551615 4 18446744073709551615 18446744073709551615 18446744073709551615 4 18446744073709551615 18446744073709551615 4 18446744073709551615 18446744073709551615 4 18446744073709551615 18446744073709551615 4 18446744073709551615 18446744073709551615 4 18446744073709551615 18446744073709551615 4 18446744073709551615 18446744073709551615 4 18446744073709551615 18446744073709551615 18446744073709551615 18446744073709551615 4 18446744073709551615 18446744073709551615 18446744073709551615 4 18446744073709551615 18446744073709551615 4 18446744073709551615 18446744073709551615 4 18446744073709551615 18446744073709551615 18446744073709551615 4 18446744073709551615 18446744073709551615 4 18446744073709551615 18446744073709551615 4 18446744073709551615 18446744073709551615 18446744073709551615 4 18446744073709551615 18446744073709551615 4 18446744073709551615 18446744073709551615 18446744073709551615 18446744073709551615 18446744073709551615 4 18446744073709551615 18446744073709551615 4 18446744073709551615 18446744073709551615 4 18446744073709551615 18446744073709551615 4 18446744073709551615 18446744073709551615 4 18446744073709551615 18446744073709551615 4 18446744073709551615 18446744073709551615 4 18446744073709551615 18446744073709551615 4 18446744073709551615 18446744073709551615 4 18446744073709551615 18446744073709551615 18446744073709551615 18446744073709551615 1 18446744073709551615 18446744073709551615 1 18446744073709551615 18446744073709551615 1 18446744073709551615 18446744073709551615 1 18446744073709551615 18446744073709551615 1 18446744073709551615 18446744073709551615 1 18446744073709551615 18446744073709551615 1 18446744073709551615 18446744073709551615 1 18446744073709551615 18446744073709551615 1 18446744073709551615 18446744073709551615 1 18446744073709551615 18446744073709551615 1 18446744073709551615 18446744073709551615 1 18446744073709551615 18446744073709551615 1 18446744073709551615 18446744073709551615 1 18446744073709551615 18446744073709551615 1 18446744073709551615 18446744073709551615 1 18446744073709551615 18446744073709551615 1 18446744073709551615 18446744073709551615 1 18446744073709551615 18446744073709551615 1 18446744073709551615 18446744073709551615 1 18446744073709551615 18446744073709551615 1 18446744073709551615 18446744073709551615 1 18446744073709551615 18446744073709551615 1 18446744073709551615 18446744073709551615 1 18446744073709551615 18446744073709551615 1 18446744073709551615 18446744073709551615 1 18446744073709551615 18446744073709551615 1 18446744073709551615 18446744073709551615 1 18446744073709551615 18446744073709551615 1 18446744073709551615 18446744073709551615 1 18446744073709551615 18446744073709551615 1 18446744073709551615 18446744073709551615 1 18446744073709551615 18446744073709551615 1 18446744073709551615 18446744073709551615 1 18446744073709551615 18446744073709551615 1 18446744073709551615 18446744073709551615 1 18446744073709551615 18446744073709551615 1 18446744073709551615 18446744073709551615 1 18446744073709551615 18446744073709551615 1 18446744073709551615 18446744073709551615 1 18446744073709551615 18446744073709551615 1 18446744073709551615 18446744073709551615 1 18446744073709551615 18446744073709551615 1 18446744073709551615 18446744073709551615 1 18446744073709551615 18446744073709551615 1 18446744073709551615 18446744073709551615 1 18446744073709551615 18446744073709551615 1 18446744073709551615 18446744073709551615 1 18446744073709551615 18446744073709551615 1 18446744073709551615 18446744073709551615 1 18446744073709551615 18446744073709551615 1 18446744073709551615 18446744073709551615 1 18446744073709551615 18446744073709551615 1 18446744073709551615 18446744073709551615 1 18446744073709551615 18446744073709551615 1 18446744073709551615 18446744073709551615 1 18446744073709551615 18446744073709551615 1 18446744073709551615 18446744073709551615 1 18446744073709551615 18446744073709551615 18446744073709551615 18446744073709551615 3 18446744073709551615 18446744073709551615 3 18446744073709551615 18446744073709551615 3 18446744073709551615 18446744073709551615 3 18446744073709551615 18446744073709551615 3 18446744073709551615 18446744073709551615 3 18446744073709551615 18446744073709551615 3 18446744073709551615 18446744073709551615 3 18446744073709551615 18446744073709551615 3 18446744073709551615 18446744073709551615 3 18446744073709551615 18446744073709551615 3 18446744073709551615 18446744073709551615 3 18446744073709551615 18446744073709551615 3 18446744073709551615 18446744073709551615 3 18446744073709551615 18446744073709551615 3 18446744073709551615 18446744073709551615 3 18446744073709551615 18446744073709551615 18446744073709551615 3 18446744073709551615 18446744073709551615 3 18446744073709551615 18446744073709551615 3 18446744073709551615 18446744073709551615 3 18446744073709551615 18446744073709551615 3 18446744073709551615 18446744073709551615 3 18446744073709551615 18446744073709551615 3 18446744073709551615 18446744073709551615 3 18446744073709551615 18446744073709551615 3 18446744073709551615 18446744073709551615 3 18446744073709551615 18446744073709551615 3 18446744073709551615 18446744073709551615 3 18446744073709551615 18446744073709551615 3 18446744073709551615 18446744073709551615 3 18446744073709551615 18446744073709551615 3 18446744073709551615 18446744073709551615 3 18446744073709551615 18446744073709551615 3 18446744073709551615 18446744073709551615 3 18446744073709551615 18446744073709551615 3 18446744073709551615 18446744073709551615 3 18446744073709551615 18446744073709551615 3 18446744073709551615 18446744073709551615 3 18446744073709551615 18446744073709551615 3 18446744073709551615 18446744073709551615 3 18446744073709551615 18446744073709551615 3 18446744073709551615 18446744073709551615 3 18446744073709551615 18446744073709551615 3 18446744073709551615 18446744073709551615 3 18446744073709551615 18446744073709551615 3 18446744073709551615 18446744073709551615 3 18446744073709551615 18446744073709551615 3 18446744073709551615 18446744073709551615 3 18446744073709551615 18446744073709551615 3 18446744073709551615 18446744073709551615 3 18446744073709551615 18446744073709551615 3 18446744073709551615 18446744073709551615 3 18446744073709551615 18446744073709551615 3 18446744073709551615 18446744073709551615 3 18446744073709551615 18446744073709551615 3 18446744073709551615 18446744073709551615 3 18446744073709551615 18446744073709551615 3 18446744073709551615 18446744073709551615 18446744073709551615 3 18446744073709551615 18446744073709551615 3 18446744073709551615 18446744073709551615 3 18446744073709551615 18446744073709551615 3 18446744073709551615 18446744073709551615 3 18446744073709551615 18446744073709551615 3 18446744073709551615 18446744073709551615 18446744073709551615 3 18446744073709551615 18446744073709551615 3 18446744073709551615 18446744073709551615 3 18446744073709551615 18446744073709551615 3 18446744073709551615 18446744073709551615 3 18446744073709551615 18446744073709551615 3 18446744073709551615 18446744073709551615 3 18446744073709551615 18446744073709551615 3 18446744073709551615 18446744073709551615 3 18446744073709551615 18446744073709551615 3 18446744073709551615 18446744073709551615 3 18446744073709551615 18446744073709551615 3 18446744073709551615 18446744073709551615 3 18446744073709551615 18446744073709551615 3 18446744073709551615 18446744073709551615 3 18446744073709551615 18446744073709551615 3 18446744073709551615 18446744073709551615 3 18446744073709551615 18446744073709551615 3 18446744073709551615 18446744073709551615 3 18446744073709551615 18446744073709551615 3 18446744073709551615 18446744073709551615 3 18446744073709551615 18446744073709551615 3 18446744073709551615 18446744073709551615 3 18446744073709551615 18446744073709551615 3 18446744073709551615 18446744073709551615 3 18446744073709551615 18446744073709551615 3 18446744073709551615 18446744073709551615 3 18446744073709551615 18446744073709551615 3 18446744073709551615 18446744073709551615 3 18446744073709551615 18446744073709551615 3 18446744073709551615 18446744073709551615 3 18446744073709551615 18446744073709551615 3 18446744073709551615 18446744073709551615 3 18446744073709551615 18446744073709551615 3 18446744073709551615 18446744073709551615 3 18446744073709551615 18446744073709551615 3 18446744073709551615 18446744073709551615 3 18446744073709551615 18446744073709551615 3 18446744073709551615 18446744073709551615 3 18446744073709551615 18446744073709551615 3 18446744073709551615 18446744073709551615 3 18446744073709551615 18446744073709551615 3 18446744073709551615 18446744073709551615 3 18446744073709551615 18446744073709551615 3 18446744073709551615 18446744073709551615 3 18446744073709551615 18446744073709551615 3 18446744073709551615 18446744073709551615 3 18446744073709551615 18446744073709551615 3 18446744073709551615 18446744073709551615 3 18446744073709551615 18446744073709551615 3 18446744073709551615 18446744073709551615 3 18446744073709551615 18446744073709551615 18446744073709551615 3 18446744073709551615 18446744073709551615 3 18446744073709551615 18446744073709551615 3 18446744073709551615 18446744073709551615 3 18446744073709551615 18446744073709551615 3 18446744073709551615 18446744073709551615 3 18446744073709551615 18446744073709551615 3 18446744073709551615 18446744073709551615 3 18446744073709551615 18446744073709551615 3 18446744073709551615 18446744073709551615 3 18446744073709551615 18446744073709551615 3 18446744073709551615 18446744073709551615 3 18446744073709551615 18446744073709551615 3 18446744073709551615 18446744073709551615 3 18446744073709551615 18446744073709551615 3 18446744073709551615 18446744073709551615 3 18446744073709551615 18446744073709551615 3 18446744073709551615 18446744073709551615 3 18446744073709551615 18446744073709551615 3 18446744073709551615 18446744073709551615 3 18446744073709551615 18446744073709551615 3 18446744073709551615 18446744073709551615 3 18446744073709551615 18446744073709551615 3 18446744073709551615 18446744073709551615 3 18446744073709551615 18446744073709551615 3 18446744073709551615 18446744073709551615 3 18446744073709551615 18446744073709551615 3 18446744073709551615 18446744073709551615 3 18446744073709551615 18446744073709551615 3 18446744073709551615 18446744073709551615 3 18446744073709551615 18446744073709551615 3 18446744073709551615 18446744073709551615 3 18446744073709551615 18446744073709551615 3 18446744073709551615 18446744073709551615 3 18446744073709551615 18446744073709551615 3 18446744073709551615 18446744073709551615 3 18446744073709551615 18446744073709551615 3 18446744073709551615 18446744073709551615 3 18446744073709551615 18446744073709551615 3 18446744073709551615 18446744073709551615 3 18446744073709551615 18446744073709551615 3 18446744073709551615 18446744073709551615 3 18446744073709551615 18446744073709551615 3 18446744073709551615 18446744073709551615 3 18446744073709551615 18446744073709551615 3 18446744073709551615 18446744073709551615 3 18446744073709551615 18446744073709551615 3 18446744073709551615 18446744073709551615 3 18446744073709551615 18446744073709551615 3 18446744073709551615 18446744073709551615 3 18446744073709551615 18446744073709551615 3 18446744073709551615 18446744073709551615 3 18446744073709551615 18446744073709551615 3 18446744073709551615 18446744073709551615 3 18446744073709551615 18446744073709551615 3 18446744073709551615 18446744073709551615 3 18446744073709551615 18446744073709551615 3 18446744073709551615 18446744073709551615 3 18446744073709551615 18446744073709551615 3 18446744073709551615 18446744073709551615 3 18446744073709551615 18446744073709551615 3 18446744073709551615 18446744073709551615 3 18446744073709551615 18446744073709551615 3 18446744073709551615 18446744073709551615 3 18446744073709551615 18446744073709551615 3 18446744073709551615 18446744073709551615 3 18446744073709551615 18446744073709551615 3 18446744073709551615 18446744073709551615 3 18446744073709551615 18446744073709551615 3 18446744073709551615 18446744073709551615 3 18446744073709551615 18446744073709551615 3 18446744073709551615 18446744073709551615 3 18446744073709551615 18446744073709551615 3 18446744073709551615 18446744073709551615 3 18446744073709551615 18446744073709551615 3 18446744073709551615 18446744073709551615 3 18446744073709551615 18446744073709551615 3 18446744073709551615 18446744073709551615 3 18446744073709551615 18446744073709551615 3 18446744073709551615 18446744073709551615 3 18446744073709551615 18446744073709551615 3 18446744073709551615 18446744073709551615 3 18446744073709551615 18446744073709551615 3 18446744073709551615 18446744073709551615 3 18446744073709551615 18446744073709551615 18446744073709551615 18446744073709551615 2 18446744073709551615 18446744073709551615 2 18446744073709551615 18446744073709551615 2 18446744073709551615 18446744073709551615 2 18446744073709551615 18446744073709551615 2 18446744073709551615 18446744073709551615 2 18446744073709551615 18446744073709551615 2 18446744073709551615 18446744073709551615 2 18446744073709551615 18446744073709551615 2 18446744073709551615 18446744073709551615 2 18446744073709551615 18446744073709551615 2 18446744073709551615 18446744073709551615 2 18446744073709551615 18446744073709551615 2 18446744073709551615 18446744073709551615 2 18446744073709551615 18446744073709551615 2 18446744073709551615 18446744073709551615 2 18446744073709551615 18446744073709551615 2 18446744073709551615 18446744073709551615 2 18446744073709551615 18446744073709551615 2 18446744073709551615 18446744073709551615 2 18446744073709551615 18446744073709551615 2 18446744073709551615 18446744073709551615 2 18446744073709551615 18446744073709551615 2 18446744073709551615 18446744073709551615 2 18446744073709551615 18446744073709551615 2 18446744073709551615 18446744073709551615 2 18446744073709551615 18446744073709551615 2 18446744073709551615 18446744073709551615 2 18446744073709551615 18446744073709551615 2 18446744073709551615 18446744073709551615 2 18446744073709551615 18446744073709551615 2 18446744073709551615 18446744073709551615 2 18446744073709551615 18446744073709551615 2 18446744073709551615 18446744073709551615 2 18446744073709551615 18446744073709551615 2 18446744073709551615 18446744073709551615 2 18446744073709551615 18446744073709551615 2 18446744073709551615 18446744073709551615 2 18446744073709551615 18446744073709551615 2 18446744073709551615 18446744073709551615 2 18446744073709551615 18446744073709551615 2 18446744073709551615 18446744073709551615 2 18446744073709551615 18446744073709551615 2 18446744073709551615 18446744073709551615 2 18446744073709551615 18446744073709551615 2 18446744073709551615 18446744073709551615 2 18446744073709551615 18446744073709551615 2 18446744073709551615 18446744073709551615 2 18446744073709551615 18446744073709551615 2 18446744073709551615 18446744073709551615 2 18446744073709551615 18446744073709551615 2 18446744073709551615 18446744073709551615 2 18446744073709551615 18446744073709551615 2 18446744073709551615 18446744073709551615 2 18446744073709551615 18446744073709551615 2 18446744073709551615 18446744073709551615 2 18446744073709551615 18446744073709551615 2 18446744073709551615 18446744073709551615 2 18446744073709551615 18446744073709551615 18446744073709551615 18446744073709551615 3 18446744073709551615 18446744073709551615 3 18446744073709551615 18446744073709551615 3 18446744073709551615 18446744073709551615 3 18446744073709551615 18446744073709551615 3 18446744073709551615 18446744073709551615 3 18446744073709551615 18446744073709551615 3 18446744073709551615 18446744073709551615 3 18446744073709551615 18446744073709551615 3 18446744073709551615 18446744073709551615 3 18446744073709551615 18446744073709551615 3 18446744073709551615 18446744073709551615 3 18446744073709551615 18446744073709551615 3 18446744073709551615 18446744073709551615 3 18446744073709551615 18446744073709551615 3 18446744073709551615 18446744073709551615 3 18446744073709551615 18446744073709551615 3 18446744073709551615 18446744073709551615 3 18446744073709551615 18446744073709551615 3 18446744073709551615 18446744073709551615 3 18446744073709551615 18446744073709551615 3 18446744073709551615 18446744073709551615 3 18446744073709551615 18446744073709551615 3 18446744073709551615 18446744073709551615 3 18446744073709551615 18446744073709551615 3 18446744073709551615 18446744073709551615 3 18446744073709551615 18446744073709551615 3 18446744073709551615 18446744073709551615 3 18446744073709551615 18446744073709551615 3 18446744073709551615 18446744073709551615 3 18446744073709551615 18446744073709551615 3 18446744073709551615 18446744073709551615 3 18446744073709551615 18446744073709551615 3 18446744073709551615 18446744073709551615 3 18446744073709551615 18446744073709551615 3 18446744073709551615 18446744073709551615 3 18446744073709551615 18446744073709551615 3 18446744073709551615 18446744073709551615 3 18446744073709551615 18446744073709551615 3 18446744073709551615 18446744073709551615 3 18446744073709551615 18446744073709551615 3 18446744073709551615 18446744073709551615 3 18446744073709551615 18446744073709551615 3 18446744073709551615 18446744073709551615 3 18446744073709551615 18446744073709551615 3 18446744073709551615 18446744073709551615 3 18446744073709551615 18446744073709551615 3 18446744073709551615 18446744073709551615 3 18446744073709551615 18446744073709551615 3 18446744073709551615 18446744073709551615 3 18446744073709551615 18446744073709551615 3 18446744073709551615 18446744073709551615 3 18446744073709551615 18446744073709551615 3 18446744073709551615 18446744073709551615 3 18446744073709551615 18446744073709551615 3 18446744073709551615 18446744073709551615 3 18446744073709551615 18446744073709551615 3 18446744073709551615 18446744073709551615 3 18446744073709551615 18446744073709551615 3 18446744073709551615 18446744073709551615 3 18446744073709551615 18446744073709551615 3 18446744073709551615 18446744073709551615 3 18446744073709551615 18446744073709551615 18446744073709551615 3 18446744073709551615 18446744073709551615 3 18446744073709551615 18446744073709551615 3 18446744073709551615 18446744073709551615 3 18446744073709551615 18446744073709551615 3 18446744073709551615 18446744073709551615 3 18446744073709551615 18446744073709551615 3 18446744073709551615 18446744073709551615 3 18446744073709551615 18446744073709551615 3 18446744073709551615 18446744073709551615 3 18446744073709551615 18446744073709551615 3 18446744073709551615 18446744073709551615 3 18446744073709551615 18446744073709551615 3 18446744073709551615 18446744073709551615 3 18446744073709551615 18446744073709551615 3 18446744073709551615 18446744073709551615 3 18446744073709551615 18446744073709551615 3 18446744073709551615 18446744073709551615 3 18446744073709551615 18446744073709551615 3 18446744073709551615 18446744073709551615 3 18446744073709551615 18446744073709551615 3 18446744073709551615 18446744073709551615 3 18446744073709551615 18446744073709551615 3 18446744073709551615 18446744073709551615 3 18446744073709551615 18446744073709551615 3 18446744073709551615 18446744073709551615 3 18446744073709551615 18446744073709551615 3 18446744073709551615 18446744073709551615 3 18446744073709551615 18446744073709551615 3 18446744073709551615 18446744073709551615 3 18446744073709551615 18446744073709551615 3 18446744073709551615 18446744073709551615 3 18446744073709551615 18446744073709551615 3 18446744073709551615 18446744073709551615 3 18446744073709551615 1844674407370955